<?xml version="1.0" encoding="UTF-8"?>
<configuration xmlns="http://sumo.dlr.de/xsd/sumo-config-file.xsd">
  <input>
    <net-file value="map.net.xml"/>
    <route-files value="map.route.xml"/>
    <additional-files value="additional.xml"/>
  </input>

  <time>
    <begin value="0"/>
    <end value="100000000000"/>
  </time>

  <output>
    <netstate-dump value="netstate.xml"/>
    <tripinfo-output value="tripinfo.xml"/>
  </output>
</configuration>
