<?xml version="1.0" encoding="UTF-8"?>

<!-- generated on 2024-11-17 23:47:54 by Eclipse SUMO GUI Version 1.21.0
<sumoConfiguration xmlns:xsi="http://www.w3.org/2001/XMLSchema-instance" xsi:noNamespaceSchemaLocation="http://sumo.dlr.de/xsd/sumoConfiguration.xsd">

    <input>
        <net-file value="map.net.xml"/>
        <route-files value="map.route.xml"/>
        <additional-files value="additional.xml"/>
    </input>

    <output>
        <netstate-dump value="netstate.xml"/>
        <tripinfo-output value="tripinfo.xml"/>
    </output>

    <time>
        <begin value="0"/>
        <end value="100000000000"/>
    </time>

    <traci_server>
        <remote-port value="53147"/>
    </traci_server>

</sumoConfiguration>
-->

<netstate xmlns:xsi="http://www.w3.org/2001/XMLSchema-instance" xsi:noNamespaceSchemaLocation="http://sumo.dlr.de/xsd/netstate_file.xsd">
    <timestep time="0.00">
        <edge id="24443806#0">
            <lane id="24443806#0_0">
                <vehicle id="0" pos="5.10" speed="0.00"/>
            </lane>
        </edge>
    </timestep>
    <timestep time="1.00">
        <edge id="24443806#0">
            <lane id="24443806#0_0">
                <vehicle id="0" pos="7.61" speed="2.51"/>
            </lane>
        </edge>
    </timestep>
    <timestep time="2.00">
        <edge id="24443806#0">
            <lane id="24443806#0_0">
                <vehicle id="0" pos="12.27" speed="4.66"/>
            </lane>
        </edge>
    </timestep>
    <timestep time="3.00">
        <edge id="24443806#0">
            <lane id="24443806#0_0">
                <vehicle id="0" pos="18.30" speed="6.04"/>
            </lane>
        </edge>
        <edge id="97251479#1">
            <lane id="97251479#1_0">
                <vehicle id="3" pos="2.37" speed="0.00"/>
            </lane>
        </edge>
    </timestep>
    <timestep time="4.00">
        <edge id=":2197854051_3">
            <lane id=":2197854051_3_0">
                <vehicle id="3" pos="1.79" speed="1.79"/>
            </lane>
        </edge>
        <edge id="24436844#2">
            <lane id="24436844#2_0">
                <vehicle id="4" pos="5.10" speed="0.00"/>
            </lane>
        </edge>
        <edge id="24443806#0">
            <lane id="24443806#0_0">
                <vehicle id="0" pos="26.72" speed="8.42"/>
            </lane>
        </edge>
    </timestep>
    <timestep time="5.00">
        <edge id=":2197854051_3">
            <lane id=":2197854051_3_0">
                <vehicle id="3" pos="5.33" speed="3.54"/>
            </lane>
        </edge>
        <edge id="24436844#2">
            <lane id="24436844#2_0">
                <vehicle id="4" pos="7.44" speed="2.34"/>
            </lane>
        </edge>
        <edge id="24443806#0">
            <lane id="24443806#0_0">
                <vehicle id="0" pos="36.69" speed="9.96"/>
            </lane>
        </edge>
    </timestep>
    <timestep time="6.00">
        <edge id="-97251479#1">
            <lane id="-97251479#1_0">
                <vehicle id="6" pos="2.37" speed="0.00"/>
            </lane>
        </edge>
        <edge id="24436844#2">
            <lane id="24436844#2_0">
                <vehicle id="4" pos="11.22" speed="3.78"/>
            </lane>
        </edge>
        <edge id="24443806#0">
            <lane id="24443806#0_0">
                <vehicle id="0" pos="48.45" speed="11.76"/>
            </lane>
        </edge>
        <edge id="97251479#2">
            <lane id="97251479#2_0">
                <vehicle id="3" pos="4.54" speed="5.45"/>
            </lane>
        </edge>
    </timestep>
    <timestep time="7.00">
        <edge id=":10224381918_2">
            <lane id=":10224381918_2_0">
                <vehicle id="0" pos="5.98" speed="13.76"/>
            </lane>
        </edge>
        <edge id=":4497466457_1">
            <lane id=":4497466457_1_0">
                <vehicle id="6" pos="2.08" speed="2.08"/>
            </lane>
        </edge>
        <edge id="24436844#2">
            <lane id="24436844#2_0">
                <vehicle id="4" pos="17.45" speed="6.23"/>
            </lane>
        </edge>
        <edge id="97251479#2">
            <lane id="97251479#2_0">
                <vehicle id="3" pos="11.30" speed="6.76"/>
            </lane>
        </edge>
    </timestep>
    <timestep time="8.00">
        <edge id=":4497466457_1">
            <lane id=":4497466457_1_0">
                <vehicle id="6" pos="6.41" speed="4.33"/>
            </lane>
        </edge>
        <edge id="24436844#2">
            <lane id="24436844#2_0">
                <vehicle id="4" pos="25.13" speed="7.68"/>
            </lane>
        </edge>
        <edge id="24443806#1">
            <lane id="24443806#1_0">
                <vehicle id="0" pos="10.20" speed="13.64"/>
            </lane>
        </edge>
        <edge id="97251479#2">
            <lane id="97251479#2_0">
                <vehicle id="3" pos="19.94" speed="8.65"/>
            </lane>
        </edge>
    </timestep>
    <timestep time="9.00">
        <edge id=":2197854055_0">
            <lane id=":2197854055_0_0">
                <vehicle id="4" pos="3.79" speed="8.12"/>
            </lane>
        </edge>
        <edge id=":265659073_2">
            <lane id=":265659073_2_0">
                <vehicle id="0" pos="7.03" speed="14.11"/>
            </lane>
        </edge>
        <edge id="-97251479#0">
            <lane id="-97251479#0_0">
                <vehicle id="6" pos="3.27" speed="6.19"/>
            </lane>
        </edge>
        <edge id="97251479#0">
            <lane id="97251479#0_0">
                <vehicle id="9" pos="5.10" speed="0.00"/>
            </lane>
        </edge>
        <edge id="97251479#2">
            <lane id="97251479#2_0">
                <vehicle id="3" pos="30.61" speed="10.67"/>
            </lane>
        </edge>
    </timestep>
    <timestep time="10.00">
        <edge id=":441787215_1">
            <lane id=":441787215_1_0">
                <vehicle id="4" pos="5.51" speed="7.92"/>
            </lane>
        </edge>
        <edge id="-97251479#0">
            <lane id="-97251479#0_0">
                <vehicle id="6" pos="11.09" speed="7.82"/>
            </lane>
        </edge>
        <edge id="24443806#2">
            <lane id="24443806#2_0">
                <vehicle id="0" pos="11.80" speed="14.44"/>
            </lane>
        </edge>
        <edge id="97251479#0">
            <lane id="97251479#0_0">
                <vehicle id="9" pos="7.65" speed="2.55"/>
            </lane>
        </edge>
        <edge id="97251479#2">
            <lane id="97251479#2_0">
                <vehicle id="3" pos="42.72" speed="12.11"/>
            </lane>
        </edge>
    </timestep>
    <timestep time="11.00">
        <edge id="-97251479#0">
            <lane id="-97251479#0_0">
                <vehicle id="6" pos="20.55" speed="9.46"/>
            </lane>
        </edge>
        <edge id="24436844#0">
            <lane id="24436844#0_0">
                <vehicle id="11" pos="5.10" speed="0.00"/>
            </lane>
        </edge>
        <edge id="24436844#4">
            <lane id="24436844#4_0">
                <vehicle id="4" pos="7.46" speed="7.81"/>
            </lane>
        </edge>
        <edge id="24443806#2">
            <lane id="24443806#2_0">
                <vehicle id="0" pos="22.69" speed="10.89"/>
            </lane>
        </edge>
        <edge id="97251479#0">
            <lane id="97251479#0_0">
                <vehicle id="9" pos="12.73" speed="5.08"/>
            </lane>
        </edge>
        <edge id="97251479#3">
            <lane id="97251479#3_0">
                <vehicle id="3" pos="2.50" speed="10.11"/>
            </lane>
        </edge>
    </timestep>
    <timestep time="12.00">
        <edge id="-97251479#0">
            <lane id="-97251479#0_0">
                <vehicle id="6" pos="31.74" speed="11.19"/>
            </lane>
        </edge>
        <edge id="24436844#0">
            <lane id="24436844#0_0">
                <vehicle id="11" pos="7.70" speed="2.60"/>
            </lane>
        </edge>
        <edge id="24436844#4">
            <lane id="24436844#4_0">
                <vehicle id="4" pos="14.71" speed="7.25"/>
            </lane>
        </edge>
        <edge id="24443806#3">
            <lane id="24443806#3_0">
                <vehicle id="0" pos="1.50" speed="7.63"/>
            </lane>
        </edge>
        <edge id="97251479#0">
            <lane id="97251479#0_0">
                <vehicle id="9" pos="19.81" speed="7.07"/>
            </lane>
        </edge>
        <edge id="97251479#3">
            <lane id="97251479#3_0">
                <vehicle id="3" pos="8.11" speed="5.61"/>
            </lane>
        </edge>
    </timestep>
    <timestep time="13.00">
        <edge id=":264726754_0">
            <lane id=":264726754_0_0">
                <vehicle id="3" pos="4.55" speed="6.70"/>
            </lane>
        </edge>
        <edge id=":264726756_1">
            <lane id=":264726756_1_0">
                <vehicle id="0" pos="3.16" speed="7.51"/>
            </lane>
        </edge>
        <edge id="-97251479#0">
            <lane id="-97251479#0_0">
                <vehicle id="6" pos="44.70" speed="12.96"/>
            </lane>
        </edge>
        <edge id="-97251479#2">
            <lane id="-97251479#2_0">
                <vehicle id="13" pos="5.10" speed="0.00"/>
            </lane>
        </edge>
        <edge id="24436844#0">
            <lane id="24436844#0_0">
                <vehicle id="11" pos="12.49" speed="4.79"/>
            </lane>
        </edge>
        <edge id="24436844#4">
            <lane id="24436844#4_0">
                <vehicle id="4" pos="23.12" speed="8.42"/>
            </lane>
        </edge>
        <edge id="97251479#0">
            <lane id="97251479#0_0">
                <vehicle id="9" pos="29.06" speed="9.25"/>
            </lane>
        </edge>
        <edge id="97251479#3">
            <lane id="97251479#3_0">
                <vehicle id="12" pos="5.10" speed="0.00"/>
            </lane>
        </edge>
    </timestep>
    <timestep time="14.00">
        <edge id=":10130055542_2">
            <lane id=":10130055542_2_0">
                <vehicle id="3" pos="2.20" speed="6.19"/>
            </lane>
        </edge>
        <edge id=":264726754_1">
            <lane id=":264726754_1_0">
                <vehicle id="0" pos="2.14" speed="7.66"/>
            </lane>
        </edge>
        <edge id="-97251479#0">
            <lane id="-97251479#0_0">
                <vehicle id="6" pos="57.69" speed="12.98"/>
            </lane>
        </edge>
        <edge id="-97251479#2">
            <lane id="-97251479#2_0">
                <vehicle id="13" pos="7.28" speed="2.18"/>
            </lane>
        </edge>
        <edge id="24436844#0">
            <lane id="24436844#0_0">
                <vehicle id="11" pos="18.49" speed="6.00"/>
            </lane>
        </edge>
        <edge id="24436844#4">
            <lane id="24436844#4_0">
                <vehicle id="4" pos="31.11" speed="7.99"/>
            </lane>
        </edge>
        <edge id="97251479#0">
            <lane id="97251479#0_0">
                <vehicle id="9" pos="40.72" speed="11.66"/>
            </lane>
        </edge>
        <edge id="97251479#3">
            <lane id="97251479#3_0">
                <vehicle id="12" pos="7.70" speed="2.60"/>
            </lane>
        </edge>
    </timestep>
    <timestep time="15.00">
        <edge id=":10130055550_2">
            <lane id=":10130055550_2_0">
                <vehicle id="3" pos="3.44" speed="8.28"/>
            </lane>
        </edge>
        <edge id=":1311009086_0">
            <lane id=":1311009086_0_0">
                <vehicle id="4" pos="2.54" speed="7.88"/>
            </lane>
        </edge>
        <edge id=":264726754_0">
            <lane id=":264726754_0_0">
                <vehicle id="12" pos="1.35" speed="3.90"/>
            </lane>
        </edge>
        <edge id="-97251479#0">
            <lane id="-97251479#0_0">
                <vehicle id="6" pos="66.50" speed="8.81"/>
            </lane>
        </edge>
        <edge id="-97251479#2">
            <lane id="-97251479#2_0">
                <vehicle id="13" pos="11.91" speed="4.63"/>
            </lane>
        </edge>
        <edge id="-97251479#3">
            <lane id="-97251479#3_0">
                <vehicle id="0" pos="1.56" speed="8.95"/>
            </lane>
        </edge>
        <edge id="24436844#0">
            <lane id="24436844#0_0">
                <vehicle id="11" pos="24.56" speed="6.07"/>
            </lane>
        </edge>
        <edge id="97251479#0">
            <lane id="97251479#0_0">
                <vehicle id="9" pos="54.38" speed="13.66"/>
            </lane>
        </edge>
    </timestep>
    <timestep time="16.00">
        <edge id=":1311009231_0">
            <lane id=":1311009231_0_0">
                <vehicle id="0" pos="1.30" speed="10.29"/>
            </lane>
        </edge>
        <edge id=":264726754_0">
            <lane id=":264726754_0_0">
                <vehicle id="12" pos="7.09" speed="5.74"/>
            </lane>
        </edge>
        <edge id=":264726772_1">
            <lane id=":264726772_1_0">
                <vehicle id="3" pos="3.81" speed="10.70"/>
            </lane>
        </edge>
        <edge id="-97251479#0">
            <lane id="-97251479#0_0">
                <vehicle id="6" pos="71.17" speed="4.67"/>
            </lane>
        </edge>
        <edge id="-97251479#2">
            <lane id="-97251479#2_0">
                <vehicle id="13" pos="18.51" speed="6.60"/>
            </lane>
        </edge>
        <edge id="24436844#0">
            <lane id="24436844#0_0">
                <vehicle id="11" pos="30.60" speed="6.03"/>
            </lane>
        </edge>
        <edge id="24436844#4">
            <lane id="24436844#4_0">
                <vehicle id="16" pos="5.10" speed="0.00"/>
            </lane>
        </edge>
        <edge id="24436844#5">
            <lane id="24436844#5_0">
                <vehicle id="4" pos="0.89" speed="3.38"/>
            </lane>
        </edge>
        <edge id="97251479#0">
            <lane id="97251479#0_0">
                <vehicle id="9" pos="68.45" speed="14.07"/>
            </lane>
        </edge>
    </timestep>
    <timestep time="17.00">
        <edge id=":10130055542_2">
            <lane id=":10130055542_2_0">
                <vehicle id="12" pos="5.83" speed="7.29"/>
            </lane>
        </edge>
        <edge id=":264726768_1">
            <lane id=":264726768_1_0">
                <vehicle id="3" pos="2.45" speed="9.52"/>
            </lane>
        </edge>
        <edge id=":430531957_0">
            <lane id=":430531957_0_0">
                <vehicle id="6" pos="1.82" speed="2.68"/>
            </lane>
        </edge>
        <edge id="-97251479#2">
            <lane id="-97251479#2_0">
                <vehicle id="0" pos="5.06" speed="8.85"/>
                <vehicle id="13" pos="26.85" speed="8.33"/>
            </lane>
        </edge>
        <edge id="24436844#0">
            <lane id="24436844#0_0">
                <vehicle id="11" pos="36.29" speed="5.69"/>
            </lane>
        </edge>
        <edge id="24436844#1">
            <lane id="24436844#1_0">
                <vehicle id="17" pos="3.27" speed="0.00"/>
            </lane>
        </edge>
        <edge id="24436844#4">
            <lane id="24436844#4_0">
                <vehicle id="16" pos="7.14" speed="2.04"/>
            </lane>
        </edge>
        <edge id="24436844#5">
            <lane id="24436844#5_0">
                <vehicle id="4" pos="1.23" speed="0.34"/>
            </lane>
        </edge>
        <edge id="97251479#1">
            <lane id="97251479#1_0">
                <vehicle id="9" pos="1.23" speed="14.07"/>
            </lane>
        </edge>
    </timestep>
    <timestep time="18.00">
        <edge id=":264726768_1">
            <lane id=":264726768_1_0">
                <vehicle id="3" pos="12.02" speed="9.56"/>
            </lane>
        </edge>
        <edge id=":4444733769_0">
            <lane id=":4444733769_0_0">
                <vehicle id="17" pos="1.59" speed="1.59"/>
            </lane>
        </edge>
        <edge id="-97251479#2">
            <lane id="-97251479#2_0">
                <vehicle id="0" pos="15.00" speed="9.93"/>
                <vehicle id="13" pos="36.62" speed="9.77"/>
            </lane>
        </edge>
        <edge id="24392333#3">
            <lane id="24392333#3_0">
                <vehicle id="12" pos="0.06" speed="8.87"/>
            </lane>
        </edge>
        <edge id="24436844#0">
            <lane id="24436844#0_0">
                <vehicle id="11" pos="42.82" speed="6.53"/>
            </lane>
        </edge>
        <edge id="24436844#4">
            <lane id="24436844#4_0">
                <vehicle id="16" pos="11.59" speed="4.46"/>
            </lane>
        </edge>
        <edge id="24436844#5">
            <lane id="24436844#5_0">
                <vehicle id="4" pos="1.24" speed="0.01"/>
            </lane>
        </edge>
        <edge id="97251479#0">
            <lane id="97251479#0_0">
                <vehicle id="6" pos="0.72" speed="3.57"/>
            </lane>
        </edge>
        <edge id="97251479#2">
            <lane id="97251479#2_0">
                <vehicle id="9" pos="6.44" speed="13.82"/>
            </lane>
        </edge>
    </timestep>
    <timestep time="19.00">
        <edge id=":2197854051_0">
            <lane id=":2197854051_0_0">
                <vehicle id="13" pos="3.25" speed="11.94"/>
            </lane>
        </edge>
        <edge id=":264726772_1">
            <lane id=":264726772_1_0">
                <vehicle id="12" pos="8.45" speed="11.12"/>
            </lane>
        </edge>
        <edge id=":441787213_1">
            <lane id=":441787213_1_0">
                <vehicle id="11" pos="1.98" speed="4.23"/>
            </lane>
        </edge>
        <edge id=":4444733769_0">
            <lane id=":4444733769_0_0">
                <vehicle id="17" pos="5.53" speed="3.94"/>
            </lane>
        </edge>
        <edge id="-97251479#2">
            <lane id="-97251479#2_0">
                <vehicle id="0" pos="25.44" speed="10.44"/>
            </lane>
        </edge>
        <edge id="1057256028">
            <lane id="1057256028_0">
                <vehicle id="3" pos="5.30" speed="9.10"/>
            </lane>
        </edge>
        <edge id="24436844#4">
            <lane id="24436844#4_0">
                <vehicle id="16" pos="17.52" speed="5.93"/>
            </lane>
        </edge>
        <edge id="24436844#5">
            <lane id="24436844#5_0">
                <vehicle id="4" pos="1.24" speed="0.00"/>
            </lane>
        </edge>
        <edge id="97251479#0">
            <lane id="97251479#0_0">
                <vehicle id="6" pos="6.50" speed="5.78"/>
            </lane>
        </edge>
        <edge id="97251479#2">
            <lane id="97251479#2_0">
                <vehicle id="9" pos="20.32" speed="13.88"/>
            </lane>
        </edge>
    </timestep>
    <timestep time="20.00">
        <edge id=":264726768_0">
            <lane id=":264726768_0_0">
                <vehicle id="12" pos="9.77" speed="12.20"/>
            </lane>
        </edge>
        <edge id="-97251479#2">
            <lane id="-97251479#2_0">
                <vehicle id="0" pos="38.12" speed="12.68"/>
            </lane>
        </edge>
        <edge id="1057256028">
            <lane id="1057256028_0">
                <vehicle id="3" pos="16.35" speed="11.05"/>
            </lane>
        </edge>
        <edge id="24436844#1">
            <lane id="24436844#1_0">
                <vehicle id="11" pos="0.49" speed="4.88"/>
            </lane>
        </edge>
        <edge id="24436844#2">
            <lane id="24436844#2_0">
                <vehicle id="17" pos="2.15" speed="6.36"/>
            </lane>
        </edge>
        <edge id="24436844#4">
            <lane id="24436844#4_0">
                <vehicle id="16" pos="24.09" speed="6.57"/>
            </lane>
        </edge>
        <edge id="24436844#5">
            <lane id="24436844#5_0">
                <vehicle id="4" pos="1.24" speed="0.00"/>
            </lane>
        </edge>
        <edge id="24443806#2">
            <lane id="24443806#2_0">
                <vehicle id="20" pos="5.10" speed="0.00"/>
            </lane>
        </edge>
        <edge id="97251479#0">
            <lane id="97251479#0_0">
                <vehicle id="6" pos="14.52" speed="8.02"/>
            </lane>
        </edge>
        <edge id="97251479#2">
            <lane id="97251479#2_0">
                <vehicle id="9" pos="34.52" speed="14.19"/>
            </lane>
        </edge>
    </timestep>
    <timestep time="21.00">
        <edge id=":1311009231_1">
            <lane id=":1311009231_1_0">
                <vehicle id="9" pos="1.49" speed="12.28"/>
            </lane>
        </edge>
        <edge id=":264726772_0">
            <lane id=":264726772_0_0">
                <vehicle id="4" pos="1.52" speed="1.63"/>
            </lane>
        </edge>
        <edge id=":4160534199_0">
            <lane id=":4160534199_0_0">
                <vehicle id="12" pos="3.99" speed="13.57"/>
            </lane>
        </edge>
        <edge id=":4444733769_0">
            <lane id=":4444733769_0_0">
                <vehicle id="11" pos="3.48" speed="6.25"/>
            </lane>
        </edge>
        <edge id="-97251479#1">
            <lane id="-97251479#1_0">
                <vehicle id="0" pos="0.67" speed="13.96"/>
            </lane>
        </edge>
        <edge id="1057256027">
            <lane id="1057256027_0">
                <vehicle id="3" pos="0.53" speed="10.17"/>
            </lane>
        </edge>
        <edge id="24436844#2">
            <lane id="24436844#2_0">
                <vehicle id="17" pos="8.13" speed="5.97"/>
            </lane>
        </edge>
        <edge id="24436844#4">
            <lane id="24436844#4_0">
                <vehicle id="16" pos="31.28" speed="7.19"/>
            </lane>
        </edge>
        <edge id="24443806#2">
            <lane id="24443806#2_0">
                <vehicle id="20" pos="7.25" speed="2.15"/>
            </lane>
        </edge>
        <edge id="97251479#0">
            <lane id="97251479#0_0">
                <vehicle id="6" pos="24.74" speed="10.22"/>
            </lane>
        </edge>
    </timestep>
    <timestep time="22.00">
        <edge id=":264726754_1">
            <lane id=":264726754_1_0">
                <vehicle id="3" pos="5.16" speed="6.96"/>
            </lane>
        </edge>
        <edge id=":264726772_0">
            <lane id=":264726772_0_0">
                <vehicle id="4" pos="4.87" speed="3.34"/>
            </lane>
        </edge>
        <edge id=":4444733769_0">
            <lane id=":4444733769_0_0">
                <vehicle id="11" pos="8.66" speed="5.18"/>
            </lane>
        </edge>
        <edge id="-97251479#0">
            <lane id="-97251479#0_0">
                <vehicle id="0" pos="3.68" speed="14.70"/>
            </lane>
        </edge>
        <edge id="-97251479#2">
            <lane id="-97251479#2_0">
                <vehicle id="22" pos="5.10" speed="0.00"/>
            </lane>
        </edge>
        <edge id="1152958775#1">
            <lane id="1152958775#1_0">
                <vehicle id="21" pos="0.20" speed="0.00"/>
            </lane>
        </edge>
        <edge id="24400261">
            <lane id="24400261_0">
                <vehicle id="12" pos="11.81" speed="13.38"/>
            </lane>
        </edge>
        <edge id="24436844#2">
            <lane id="24436844#2_0">
                <vehicle id="17" pos="14.43" speed="6.30"/>
            </lane>
        </edge>
        <edge id="24436844#4">
            <lane id="24436844#4_0">
                <vehicle id="16" pos="35.07" speed="3.78"/>
            </lane>
        </edge>
        <edge id="24443806#2">
            <lane id="24443806#2_0">
                <vehicle id="20" pos="11.78" speed="4.53"/>
            </lane>
        </edge>
        <edge id="97251479#0">
            <lane id="97251479#0_0">
                <vehicle id="6" pos="37.19" speed="12.45"/>
            </lane>
        </edge>
        <edge id="97251479#3">
            <lane id="97251479#3_0">
                <vehicle id="9" pos="4.47" speed="8.01"/>
            </lane>
        </edge>
    </timestep>
    <timestep time="23.00">
        <edge id=":1311009086_0">
            <lane id=":1311009086_0_0">
                <vehicle id="16" pos="3.25" speed="4.64"/>
            </lane>
        </edge>
        <edge id=":264726754_0">
            <lane id=":264726754_0_0">
                <vehicle id="9" pos="0.66" speed="6.43"/>
            </lane>
        </edge>
        <edge id=":264726768_1">
            <lane id=":264726768_1_0">
                <vehicle id="4" pos="1.00" speed="5.53"/>
            </lane>
        </edge>
        <edge id="-97251479#0">
            <lane id="-97251479#0_0">
                <vehicle id="0" pos="17.94" speed="14.26"/>
            </lane>
        </edge>
        <edge id="-97251479#2">
            <lane id="-97251479#2_0">
                <vehicle id="22" pos="7.61" speed="2.51"/>
            </lane>
        </edge>
        <edge id="-97251479#3">
            <lane id="-97251479#3_0">
                <vehicle id="3" pos="2.90" speed="7.28"/>
            </lane>
        </edge>
        <edge id="24400261">
            <lane id="24400261_0">
                <vehicle id="12" pos="25.18" speed="13.37"/>
            </lane>
        </edge>
        <edge id="24436844#2">
            <lane id="24436844#2_0">
                <vehicle id="11" pos="5.25" speed="6.33"/>
                <vehicle id="17" pos="20.44" speed="6.01"/>
            </lane>
        </edge>
        <edge id="24443806#2">
            <lane id="24443806#2_0">
                <vehicle id="20" pos="18.02" speed="6.24"/>
            </lane>
        </edge>
        <edge id="97251479#0">
            <lane id="97251479#0_0">
                <vehicle id="6" pos="51.13" speed="13.93"/>
            </lane>
        </edge>
    </timestep>
    <timestep time="24.00">
        <edge id=":1311008977_0">
            <lane id=":1311008977_0_0">
                <vehicle id="20" pos="2.02" speed="7.65"/>
            </lane>
        </edge>
        <edge id=":1311009231_0">
            <lane id=":1311009231_0_0">
                <vehicle id="3" pos="0.86" speed="8.51"/>
            </lane>
        </edge>
        <edge id=":264726754_0">
            <lane id=":264726754_0_0">
                <vehicle id="9" pos="7.97" speed="7.31"/>
            </lane>
        </edge>
        <edge id=":264726768_1">
            <lane id=":264726768_1_0">
                <vehicle id="4" pos="8.39" speed="7.39"/>
            </lane>
        </edge>
        <edge id="-97251479#0">
            <lane id="-97251479#0_0">
                <vehicle id="0" pos="31.86" speed="13.92"/>
            </lane>
        </edge>
        <edge id="-97251479#2">
            <lane id="-97251479#2_0">
                <vehicle id="22" pos="12.30" speed="4.69"/>
            </lane>
        </edge>
        <edge id="24400261">
            <lane id="24400261_0">
                <vehicle id="12" pos="38.78" speed="13.60"/>
            </lane>
        </edge>
        <edge id="24436844#2">
            <lane id="24436844#2_0">
                <vehicle id="11" pos="11.06" speed="5.81"/>
                <vehicle id="17" pos="26.47" speed="6.02"/>
            </lane>
        </edge>
        <edge id="24436844#5">
            <lane id="24436844#5_0">
                <vehicle id="16" pos="0.33" speed="2.11"/>
            </lane>
        </edge>
        <edge id="24443806#0">
            <lane id="24443806#0_0">
                <vehicle id="24" pos="5.10" speed="0.00"/>
            </lane>
        </edge>
        <edge id="97251479#0">
            <lane id="97251479#0_0">
                <vehicle id="6" pos="65.69" speed="14.57"/>
            </lane>
        </edge>
    </timestep>
    <timestep time="25.00">
        <edge id=":10130055542_2">
            <lane id=":10130055542_2_0">
                <vehicle id="9" pos="5.86" speed="6.44"/>
            </lane>
        </edge>
        <edge id=":2197854055_0">
            <lane id=":2197854055_0_0">
                <vehicle id="17" pos="3.95" speed="6.94"/>
            </lane>
        </edge>
        <edge id=":4497466457_2">
            <lane id=":4497466457_2_0">
                <vehicle id="6" pos="7.38" speed="13.78"/>
            </lane>
        </edge>
        <edge id="-97251479#0">
            <lane id="-97251479#0_0">
                <vehicle id="0" pos="45.44" speed="13.58"/>
            </lane>
        </edge>
        <edge id="-97251479#2">
            <lane id="-97251479#2_0">
                <vehicle id="3" pos="2.53" speed="6.76"/>
                <vehicle id="22" pos="19.27" speed="6.97"/>
            </lane>
        </edge>
        <edge id="-97251479#3">
            <lane id="-97251479#3_0">
                <vehicle id="23" pos="5.10" speed="0.00"/>
            </lane>
        </edge>
        <edge id="1057256028">
            <lane id="1057256028_0">
                <vehicle id="4" pos="2.50" speed="9.93"/>
            </lane>
        </edge>
        <edge id="24436844#1">
            <lane id="24436844#1_0">
                <vehicle id="25" pos="3.27" speed="0.00"/>
            </lane>
        </edge>
        <edge id="24436844#2">
            <lane id="24436844#2_0">
                <vehicle id="11" pos="17.53" speed="6.48"/>
            </lane>
        </edge>