<?xml version="1.0" encoding="UTF-8"?>

<!-- generated on 2024-11-17 23:47:54 by Eclipse SUMO GUI Version 1.21.0
<sumoConfiguration xmlns:xsi="http://www.w3.org/2001/XMLSchema-instance" xsi:noNamespaceSchemaLocation="http://sumo.dlr.de/xsd/sumoConfiguration.xsd">

    <input>
        <net-file value="map.net.xml"/>
        <route-files value="map.route.xml"/>
        <additional-files value="additional.xml"/>
    </input>

    <output>
        <netstate-dump value="netstate.xml"/>
        <tripinfo-output value="tripinfo.xml"/>
    </output>

    <time>
        <begin value="0"/>
        <end value="100000000000"/>
    </time>

    <traci_server>
        <remote-port value="53147"/>
    </traci_server>

</sumoConfiguration>
-->

<tripinfos xmlns:xsi="http://www.w3.org/2001/XMLSchema-instance" xsi:noNamespaceSchemaLocation="http://sumo.dlr.de/xsd/tripinfo_file.xsd">
    <tripinfo id="13" depart="13.00" departLane="-97251479#2_0" departPos="5.10" departSpeed="0.00" departDelay="0.00" arrival="20.00" arrivalLane="-97251479#1_0" arrivalPos="2.37" arrivalSpeed="11.46" duration="7.00" routeLength="48.67" waitingTime="0.00" waitingCount="0" stopTime="0.00" timeLoss="2.54" rerouteNo="0" devices="tripinfo_13" vType="DEFAULT_VEHTYPE" speedFactor="0.89" vaporized=""/>
    <tripinfo id="21" depart="22.00" departLane="1152958775#1_0" departPos="0.20" departSpeed="0.00" departDelay="1.00" arrival="23.00" arrivalLane="1152958775#1_0" arrivalPos="0.20" arrivalSpeed="2.14" duration="1.00" routeLength="0.00" waitingTime="0.00" waitingCount="0" stopTime="0.00" timeLoss="0.85" rerouteNo="0" devices="tripinfo_21" vType="DEFAULT_VEHTYPE" speedFactor="1.03" vaporized=""/>
    <tripinfo id="12" depart="13.00" departLane="97251479#3_0" departPos="5.10" departSpeed="0.00" departDelay="1.00" arrival="25.00" arrivalLane="1152958776_0" arrivalPos="12.00" arrivalSpeed="14.47" duration="12.00" routeLength="118.50" waitingTime="0.00" waitingCount="0" stopTime="0.00" timeLoss="3.03" rerouteNo="0" devices="tripinfo_12" vType="DEFAULT_VEHTYPE" speedFactor="1.05" vaporized=""/>
    <tripinfo id="17" depart="17.00" departLane="24436844#1_0" departPos="3.27" departSpeed="0.00" departDelay="0.00" arrival="26.00" arrivalLane="24436844#3_0" arrivalPos="0.27" arrivalSpeed="6.31" duration="9.00" routeLength="45.40" waitingTime="0.00" waitingCount="0" stopTime="0.00" timeLoss="2.07" rerouteNo="0" devices="tripinfo_17" vType="DEFAULT_VEHTYPE" speedFactor="0.86" vaporized=""/>
    <tripinfo id="0" depart="0.00" departLane="24443806#0_0" departPos="5.10" departSpeed="0.00" departDelay="0.00" arrival="27.00" arrivalLane="-97251479#0_0" arrivalPos="72.02" arrivalSpeed="13.63" duration="27.00" routeLength="291.13" waitingTime="0.00" waitingCount="0" stopTime="0.00" timeLoss="6.44" rerouteNo="0" devices="tripinfo_0" vType="DEFAULT_VEHTYPE" speedFactor="1.06" vaporized=""/>
    <tripinfo id="3" depart="3.00" departLane="97251479#1_0" departPos="2.37" departSpeed="0.00" departDelay="0.00" arrival="30.00" arrivalLane="-97251479#1_0" arrivalPos="2.37" arrivalSpeed="12.46" duration="27.00" routeLength="226.71" waitingTime="0.00" waitingCount="0" stopTime="0.00" timeLoss="8.06" rerouteNo="0" devices="tripinfo_3" vType="DEFAULT_VEHTYPE" speedFactor="0.94" vaporized=""/>
    <tripinfo id="29" depart="29.00" departLane="1152958775#0_0" departPos="5.10" departSpeed="0.00" departDelay="0.00" arrival="36.00" arrivalLane="24400261_0" arrivalPos="39.37" arrivalSpeed="11.88" duration="7.00" routeLength="45.25" waitingTime="0.00" waitingCount="0" stopTime="0.00" timeLoss="2.60" rerouteNo="0" devices="tripinfo_29" vType="DEFAULT_VEHTYPE" speedFactor="0.88" vaporized=""/>
    <tripinfo id="6" depart="6.00" departLane="-97251479#1_0" departPos="2.37" departSpeed="0.00" departDelay="0.00" arrival="42.00" arrivalLane="-97251479#3_0" arrivalPos="10.55" arrivalSpeed="10.37" duration="36.00" routeLength="337.53" waitingTime="0.00" waitingCount="0" stopTime="0.00" timeLoss="10.58" rerouteNo="0" devices="tripinfo_6" vType="DEFAULT_VEHTYPE" speedFactor="1.08" vaporized=""/>
    <tripinfo id="4" depart="4.00" departLane="24436844#2_0" departPos="5.10" departSpeed="0.00" departDelay="0.00" arrival="43.00" arrivalLane="-97251479#0_0" arrivalPos="72.02" arrivalSpeed="6.96" duration="39.00" routeLength="293.08" waitingTime="3.00" waitingCount="1" stopTime="0.00" timeLoss="13.08" rerouteNo="0" devices="tripinfo_4" vType="DEFAULT_VEHTYPE" speedFactor="1.01" vaporized=""/>
    <tripinfo id="9" depart="9.00" departLane="97251479#0_0" departPos="5.10" departSpeed="0.00" departDelay="0.00" arrival="45.00" arrivalLane="-97251479#0_0" arrivalPos="72.02" arrivalSpeed="13.13" duration="36.00" routeLength="386.62" waitingTime="0.00" waitingCount="0" stopTime="0.00" timeLoss="6.82" rerouteNo="0" devices="tripinfo_9" vType="DEFAULT_VEHTYPE" speedFactor="1.03" vaporized=""/>
    <tripinfo id="40" depart="42.00" departLane="24436844#5_0" departPos="1.34" departSpeed="0.00" departDelay="2.00" arrival="48.00" arrivalLane="1152958775#0_0" arrivalPos="5.42" arrivalSpeed="11.11" duration="6.00" routeLength="28.75" waitingTime="0.00" waitingCount="0" stopTime="0.00" timeLoss="2.82" rerouteNo="0" devices="tripinfo_40" vType="DEFAULT_VEHTYPE" speedFactor="1.02" vaporized=""/>
    <tripinfo id="25" depart="25.00" departLane="24436844#1_0" departPos="3.27" departSpeed="0.00" departDelay="0.00" arrival="50.00" arrivalLane="-97251479#3_0" arrivalPos="10.55" arrivalSpeed="8.38" duration="25.00" routeLength="167.71" waitingTime="0.00" waitingCount="0" stopTime="0.00" timeLoss="5.23" rerouteNo="0" devices="tripinfo_25" vType="DEFAULT_VEHTYPE" speedFactor="0.93" vaporized=""/>
    <tripinfo id="11" depart="11.00" departLane="24436844#0_0" departPos="5.10" departSpeed="0.00" departDelay="0.00" arrival="52.00" arrivalLane="-97251479#2_0" arrivalPos="45.31" arrivalSpeed="11.52" duration="41.00" routeLength="267.72" waitingTime="0.00" waitingCount="0" stopTime="0.00" timeLoss="7.21" rerouteNo="0" devices="tripinfo_11" vType="DEFAULT_VEHTYPE" speedFactor="0.83" vaporized=""/>
    <tripinfo id="36" depart="36.00" departLane="97251479#1_0" departPos="2.37" departSpeed="0.00" departDelay="0.00" arrival="52.00" arrivalLane="1152958775#1_0" arrivalPos="0.20" arrivalSpeed="12.95" duration="16.00" routeLength="128.29" waitingTime="0.00" waitingCount="0" stopTime="0.00" timeLoss="5.25" rerouteNo="0" devices="tripinfo_36" vType="DEFAULT_VEHTYPE" speedFactor="0.94" vaporized=""/>
    <tripinfo id="22" depart="22.00" departLane="-97251479#2_0" departPos="5.10" departSpeed="0.00" departDelay="0.00" arrival="56.00" arrivalLane="1152958775#0_0" arrivalPos="5.42" arrivalSpeed="14.37" duration="34.00" routeLength="341.33" waitingTime="0.00" waitingCount="0" stopTime="0.00" timeLoss="9.43" rerouteNo="0" devices="tripinfo_22" vType="DEFAULT_VEHTYPE" speedFactor="1.05" vaporized=""/>
    <tripinfo id="44" depart="44.00" departLane="-97251479#2_0" departPos="5.10" departSpeed="0.00" departDelay="0.00" arrival="58.00" arrivalLane="-97251479#0_0" arrivalPos="72.02" arrivalSpeed="11.52" duration="14.00" routeLength="130.02" waitingTime="0.00" waitingCount="0" stopTime="0.00" timeLoss="2.90" rerouteNo="0" devices="tripinfo_44" vType="DEFAULT_VEHTYPE" speedFactor="0.89" vaporized=""/>
    <tripinfo id="24" depart="24.00" departLane="24443806#0_0" departPos="5.10" departSpeed="0.00" departDelay="0.00" arrival="63.00" arrivalLane="1152958776_0" arrivalPos="12.00" arrivalSpeed="13.53" duration="39.00" routeLength="248.85" waitingTime="11.00" waitingCount="1" stopTime="0.00" timeLoss="19.65" rerouteNo="0" devices="tripinfo_24" vType="DEFAULT_VEHTYPE" speedFactor="0.99" vaporized=""/>
    <tripinfo id="37" depart="37.00" departLane="24443806#1_0" departPos="5.10" departSpeed="0.00" departDelay="0.00" arrival="64.00" arrivalLane="24400261_0" arrivalPos="39.37" arrivalSpeed="15.50" duration="27.00" routeLength="170.94" waitingTime="4.00" waitingCount="1" stopTime="0.00" timeLoss="15.40" rerouteNo="0" devices="tripinfo_37" vType="DEFAULT_VEHTYPE" speedFactor="1.16" vaporized=""/>
    <tripinfo id="23" depart="25.00" departLane="-97251479#3_0" departPos="5.10" departSpeed="0.00" departDelay="2.00" arrival="65.00" arrivalLane="1152958775#1_0" arrivalPos="0.20" arrivalSpeed="14.98" duration="40.00" routeLength="362.28" waitingTime="1.00" waitingCount="1" stopTime="0.00" timeLoss="14.78" rerouteNo="0" devices="tripinfo_23" vType="DEFAULT_VEHTYPE" speedFactor="1.12" vaporized=""/>
    <tripinfo id="16" depart="16.00" departLane="24436844#4_0" departPos="5.10" departSpeed="0.00" departDelay="0.00" arrival="67.00" arrivalLane="97251479#3_0" arrivalPos="10.25" arrivalSpeed="11.97" duration="51.00" routeLength="406.72" waitingTime="3.00" waitingCount="1" stopTime="0.00" timeLoss="16.05" rerouteNo="0" devices="tripinfo_16" vType="DEFAULT_VEHTYPE" speedFactor="0.94" vaporized=""/>
    <tripinfo id="20" depart="20.00" departLane="24443806#2_0" departPos="5.10" departSpeed="0.00" departDelay="0.00" arrival="68.00" arrivalLane="-97251479#0_0" arrivalPos="72.02" arrivalSpeed="5.14" duration="48.00" routeLength="198.53" waitingTime="20.00" waitingCount="1" stopTime="0.00" timeLoss="34.51" rerouteNo="0" devices="tripinfo_20" vType="DEFAULT_VEHTYPE" speedFactor="1.09" vaporized=""/>
    <tripinfo id="55" depart="55.00" departLane="97251479#1_0" departPos="2.37" departSpeed="0.00" departDelay="0.00" arrival="71.00" arrivalLane="1152958775#1_0" arrivalPos="0.20" arrivalSpeed="12.85" duration="16.00" routeLength="128.29" waitingTime="0.00" waitingCount="0" stopTime="0.00" timeLoss="5.50" rerouteNo="0" devices="tripinfo_55" vType="DEFAULT_VEHTYPE" speedFactor="0.95" vaporized=""/>
    <tripinfo id="70" depart="70.00" departLane="24436844#3_0" departPos="0.27" departSpeed="0.00" departDelay="0.00" arrival="71.00" arrivalLane="24436844#3_0" arrivalPos="0.27" arrivalSpeed="2.56" duration="1.00" routeLength="0.00" waitingTime="0.00" waitingCount="0" stopTime="0.00" timeLoss="0.68" rerouteNo="0" devices="tripinfo_70" vType="DEFAULT_VEHTYPE" speedFactor="0.97" vaporized=""/>
    <tripinfo id="66" depart="66.00" departLane="97251479#1_0" departPos="2.37" departSpeed="0.00" departDelay="0.00" arrival="73.00" arrivalLane="97251479#2_0" arrivalPos="45.31" arrivalSpeed="13.80" duration="7.00" routeLength="51.55" waitingTime="0.00" waitingCount="0" stopTime="0.00" timeLoss="3.13" rerouteNo="0" devices="tripinfo_66" vType="DEFAULT_VEHTYPE" speedFactor="0.99" vaporized=""/>
    <tripinfo id="74" depart="74.00" departLane="1152958775#1_0" departPos="0.20" departSpeed="0.00" departDelay="0.00" arrival="75.00" arrivalLane="1152958775#1_0" arrivalPos="0.20" arrivalSpeed="1.41" duration="1.00" routeLength="0.00" waitingTime="0.00" waitingCount="0" stopTime="0.00" timeLoss="0.91" rerouteNo="0" devices="tripinfo_74" vType="DEFAULT_VEHTYPE" speedFactor="1.10" vaporized=""/>
    <tripinfo id="59" depart="59.00" departLane="24443806#0_0" departPos="5.10" departSpeed="0.00" departDelay="0.00" arrival="80.00" arrivalLane="-97251479#2_0" arrivalPos="45.31" arrivalSpeed="15.08" duration="21.00" routeLength="201.32" waitingTime="0.00" waitingCount="0" stopTime="0.00" timeLoss="7.13" rerouteNo="0" devices="tripinfo_59" vType="DEFAULT_VEHTYPE" speedFactor="1.18" vaporized=""/>
    <tripinfo id="34" depart="34.00" departLane="24436844#0_0" departPos="5.10" departSpeed="0.00" departDelay="0.00" arrival="82.00" arrivalLane="1152958775#1_0" arrivalPos="0.20" arrivalSpeed="12.60" duration="48.00" routeLength="177.76" waitingTime="16.00" waitingCount="2" stopTime="0.00" timeLoss="25.68" rerouteNo="0" devices="tripinfo_34" vType="DEFAULT_VEHTYPE" speedFactor="0.94" vaporized=""/>
    <tripinfo id="42" depart="44.00" departLane="24436844#1_0" departPos="3.27" departSpeed="0.00" departDelay="2.00" arrival="83.00" arrivalLane="1152958775#0_0" arrivalPos="5.42" arrivalSpeed="10.25" duration="39.00" routeLength="122.84" waitingTime="14.00" waitingCount="1" stopTime="0.00" timeLoss="24.74" rerouteNo="0" devices="tripinfo_42" vType="DEFAULT_VEHTYPE" speedFactor="0.97" vaporized=""/>
    <tripinfo id="76" depart="77.00" departLane="24436844#2_0" departPos="5.10" departSpeed="0.00" departDelay="1.00" arrival="83.00" arrivalLane="24436844#2_0" arrivalPos="29.46" arrivalSpeed="6.30" duration="6.00" routeLength="24.36" waitingTime="0.00" waitingCount="0" stopTime="0.00" timeLoss="2.06" rerouteNo="0" devices="tripinfo_76" vType="DEFAULT_VEHTYPE" speedFactor="0.90" vaporized=""/>
    <tripinfo id="63" depart="65.00" departLane="-97251479#1_0" departPos="2.37" departSpeed="0.00" departDelay="2.00" arrival="91.00" arrivalLane="97251479#2_0" arrivalPos="45.31" arrivalSpeed="13.76" duration="26.00" routeLength="221.23" waitingTime="0.00" waitingCount="0" stopTime="0.00" timeLoss="8.71" rerouteNo="0" devices="tripinfo_63" vType="DEFAULT_VEHTYPE" speedFactor="1.01" vaporized=""/>
    <tripinfo id="56" depart="58.00" departLane="24436844#4_0" departPos="5.10" departSpeed="0.00" departDelay="2.00" arrival="93.00" arrivalLane="-97251479#3_0" arrivalPos="10.55" arrivalSpeed="10.30" duration="35.00" routeLength="111.35" waitingTime="10.00" waitingCount="1" stopTime="0.00" timeLoss="25.13" rerouteNo="0" devices="tripinfo_56" vType="DEFAULT_VEHTYPE" speedFactor="1.13" vaporized=""/>
    <tripinfo id="47" depart="50.00" departLane="-97251479#2_0" departPos="5.10" departSpeed="0.00" departDelay="3.00" arrival="94.00" arrivalLane="24400261_0" arrivalPos="39.37" arrivalSpeed="11.39" duration="44.00" routeLength="386.26" waitingTime="0.00" waitingCount="0" stopTime="0.00" timeLoss="8.46" rerouteNo="0" devices="tripinfo_47" vType="DEFAULT_VEHTYPE" speedFactor="0.83" vaporized=""/>
    <tripinfo id="62" depart="62.00" departLane="-97251479#1_0" departPos="2.37" departSpeed="0.00" departDelay="0.00" arrival="97.00" arrivalLane="1152958776_0" arrivalPos="12.00" arrivalSpeed="14.80" duration="35.00" routeLength="349.86" waitingTime="0.00" waitingCount="0" stopTime="0.00" timeLoss="11.38" rerouteNo="0" devices="tripinfo_62" vType="DEFAULT_VEHTYPE" speedFactor="1.15" vaporized=""/>
    <tripinfo id="49" depart="59.00" departLane="97251479#3_0" departPos="5.10" departSpeed="0.00" departDelay="10.00" arrival="98.00" arrivalLane="97251479#1_0" arrivalPos="2.37" arrivalSpeed="10.84" duration="39.00" routeLength="334.71" waitingTime="0.00" waitingCount="0" stopTime="0.00" timeLoss="8.39" rerouteNo="0" devices="tripinfo_49" vType="DEFAULT_VEHTYPE" speedFactor="0.87" vaporized=""/>
    <tripinfo id="72" depart="72.00" departLane="24436844#2_0" departPos="5.10" departSpeed="0.00" departDelay="0.00" arrival="103.00" arrivalLane="1152958775#0_0" arrivalPos="5.42" arrivalSpeed="10.30" duration="31.00" routeLength="108.00" waitingTime="9.00" waitingCount="1" stopTime="0.00" timeLoss="20.52" rerouteNo="0" devices="tripinfo_72" vType="DEFAULT_VEHTYPE" speedFactor="1.18" vaporized=""/>
    <tripinfo id="78" depart="78.00" departLane="24436844#0_0" departPos="5.10" departSpeed="0.00" departDelay="0.00" arrival="103.00" arrivalLane="24436844#4_0" arrivalPos="36.46" arrivalSpeed="5.71" duration="25.00" routeLength="137.33" waitingTime="3.00" waitingCount="1" stopTime="0.00" timeLoss="7.45" rerouteNo="0" devices="tripinfo_78" vType="DEFAULT_VEHTYPE" speedFactor="0.96" vaporized=""/>
    <tripinfo id="41" depart="44.00" departLane="24436844#5_0" departPos="1.34" departSpeed="0.00" departDelay="3.00" arrival="105.00" arrivalLane="97251479#2_0" arrivalPos="45.31" arrivalSpeed="13.24" duration="61.00" routeLength="353.71" waitingTime="25.00" waitingCount="1" stopTime="0.00" timeLoss="33.54" rerouteNo="0" devices="tripinfo_41" vType="DEFAULT_VEHTYPE" speedFactor="1.01" vaporized=""/>
    <tripinfo id="57" depart="63.00" departLane="97251479#2_0" departPos="5.10" departSpeed="0.00" departDelay="6.00" arrival="105.00" arrivalLane="97251479#1_0" arrivalPos="2.37" arrivalSpeed="12.59" duration="42.00" routeLength="385.05" waitingTime="0.00" waitingCount="0" stopTime="0.00" timeLoss="9.88" rerouteNo="0" devices="tripinfo_57" vType="DEFAULT_VEHTYPE" speedFactor="0.93" vaporized=""/>
    <tripinfo id="82" depart="82.00" departLane="97251479#1_0" departPos="2.37" departSpeed="0.00" departDelay="0.00" arrival="105.00" arrivalLane="-97251479#1_0" arrivalPos="2.37" arrivalSpeed="14.89" duration="23.00" routeLength="226.71" waitingTime="0.00" waitingCount="0" stopTime="0.00" timeLoss="6.68" rerouteNo="0" devices="tripinfo_82" vType="DEFAULT_VEHTYPE" speedFactor="1.09" vaporized=""/>
    <tripinfo id="93" depart="93.00" departLane="97251479#1_0" departPos="2.37" departSpeed="0.00" departDelay="0.00" arrival="108.00" arrivalLane="1152958775#0_0" arrivalPos="5.42" arrivalSpeed="13.43" duration="15.00" routeLength="122.98" waitingTime="0.00" waitingCount="0" stopTime="0.00" timeLoss="4.82" rerouteNo="0" devices="tripinfo_93" vType="DEFAULT_VEHTYPE" speedFactor="1.00" vaporized=""/>
    <tripinfo id="91" depart="91.00" departLane="97251479#3_0" departPos="5.10" departSpeed="0.00" departDelay="0.00" arrival="109.00" arrivalLane="-97251479#1_0" arrivalPos="2.37" arrivalSpeed="13.58" duration="18.00" routeLength="165.03" waitingTime="0.00" waitingCount="0" stopTime="0.00" timeLoss="4.14" rerouteNo="0" devices="tripinfo_91" vType="DEFAULT_VEHTYPE" speedFactor="1.04" vaporized=""/>
    <tripinfo id="107" depart="108.00" departLane="97251479#3_0" departPos="5.10" departSpeed="0.00" departDelay="1.00" arrival="110.00" arrivalLane="97251479#3_0" arrivalPos="10.25" arrivalSpeed="4.23" duration="2.00" routeLength="5.15" waitingTime="0.00" waitingCount="0" stopTime="0.00" timeLoss="1.55" rerouteNo="0" devices="tripinfo_107" vType="DEFAULT_VEHTYPE" speedFactor="1.00" vaporized=""/>
    <tripinfo id="109" depart="109.00" departLane="1152958775#0_0" departPos="5.10" departSpeed="0.00" departDelay="0.00" arrival="111.00" arrivalLane="1152958775#1_0" arrivalPos="0.20" arrivalSpeed="3.98" duration="2.00" routeLength="5.63" waitingTime="0.00" waitingCount="0" stopTime="0.00" timeLoss="1.51" rerouteNo="0" devices="tripinfo_109" vType="DEFAULT_VEHTYPE" speedFactor="0.90" vaporized=""/>
    <tripinfo id="65" depart="65.00" departLane="24436844#0_0" departPos="5.10" departSpeed="0.00" departDelay="0.00" arrival="114.00" arrivalLane="-97251479#1_0" arrivalPos="2.37" arrivalSpeed="15.52" duration="49.00" routeLength="276.18" waitingTime="9.00" waitingCount="1" stopTime="0.00" timeLoss="24.69" rerouteNo="0" devices="tripinfo_65" vType="DEFAULT_VEHTYPE" speedFactor="1.17" vaporized=""/>
    <tripinfo id="69" depart="73.00" departLane="24443806#3_0" departPos="5.10" departSpeed="0.00" departDelay="4.00" arrival="117.00" arrivalLane="-97251479#2_0" arrivalPos="45.31" arrivalSpeed="13.01" duration="44.00" routeLength="79.90" waitingTime="33.00" waitingCount="1" stopTime="0.00" timeLoss="37.52" rerouteNo="0" devices="tripinfo_69" vType="DEFAULT_VEHTYPE" speedFactor="1.02" vaporized=""/>
    <tripinfo id="54" depart="54.00" departLane="24436844#3_0" departPos="0.27" departSpeed="0.00" departDelay="0.00" arrival="119.00" arrivalLane="97251479#3_0" arrivalPos="10.25" arrivalSpeed="12.62" duration="65.00" routeLength="417.68" waitingTime="10.00" waitingCount="1" stopTime="0.00" timeLoss="27.40" rerouteNo="0" devices="tripinfo_54" vType="DEFAULT_VEHTYPE" speedFactor="0.92" vaporized=""/>
    <tripinfo id="77" depart="84.00" departLane="-97251479#3_0" departPos="5.10" departSpeed="0.00" departDelay="7.00" arrival="121.00" arrivalLane="1152958775#0_0" arrivalPos="5.42" arrivalSpeed="13.20" duration="37.00" routeLength="356.97" waitingTime="0.00" waitingCount="0" stopTime="0.00" timeLoss="10.12" rerouteNo="0" devices="tripinfo_77" vType="DEFAULT_VEHTYPE" speedFactor="1.03" vaporized=""/>
    <tripinfo id="95" depart="95.00" departLane="24436844#2_0" departPos="5.10" departSpeed="0.00" departDelay="0.00" arrival="128.00" arrivalLane="1152958775#1_0" arrivalPos="0.20" arrivalSpeed="10.52" duration="33.00" routeLength="113.31" waitingTime="5.00" waitingCount="2" stopTime="0.00" timeLoss="18.63" rerouteNo="0" devices="tripinfo_95" vType="DEFAULT_VEHTYPE" speedFactor="0.90" vaporized=""/>
    <tripinfo id="92" depart="92.00" departLane="24436844#2_0" departPos="5.10" departSpeed="0.00" departDelay="0.00" arrival="129.00" arrivalLane="1152958776_0" arrivalPos="12.00" arrivalSpeed="14.13" duration="37.00" routeLength="165.20" waitingTime="6.00" waitingCount="2" stopTime="0.00" timeLoss="21.71" rerouteNo="0" devices="tripinfo_92" vType="DEFAULT_VEHTYPE" speedFactor="1.09" vaporized=""/>
    <tripinfo id="130" depart="130.00" departLane="97251479#1_0" departPos="2.37" departSpeed="0.00" departDelay="0.00" arrival="131.00" arrivalLane="97251479#1_0" arrivalPos="2.37" arrivalSpeed="1.97" duration="1.00" routeLength="0.00" waitingTime="0.00" waitingCount="0" stopTime="0.00" timeLoss="0.85" rerouteNo="0" devices="tripinfo_130" vType="DEFAULT_VEHTYPE" speedFactor="0.91" vaporized=""/>
    <tripinfo id="127" depart="130.00" departLane="97251479#3_0" departPos="5.10" departSpeed="0.00" departDelay="3.00" arrival="132.00" arrivalLane="97251479#3_0" arrivalPos="10.25" arrivalSpeed="4.47" duration="2.00" routeLength="5.15" waitingTime="0.00" waitingCount="0" stopTime="0.00" timeLoss="1.44" rerouteNo="0" devices="tripinfo_127" vType="DEFAULT_VEHTYPE" speedFactor="0.88" vaporized=""/>
    <tripinfo id="87" depart="108.00" departLane="97251479#0_0" departPos="5.10" departSpeed="0.00" departDelay="21.00" arrival="134.00" arrivalLane="-97251479#3_0" arrivalPos="10.55" arrivalSpeed="11.20" duration="26.00" routeLength="246.41" waitingTime="0.00" waitingCount="0" stopTime="0.00" timeLoss="6.88" rerouteNo="0" devices="tripinfo_87" vType="DEFAULT_VEHTYPE" speedFactor="1.04" vaporized=""/>
    <tripinfo id="123" depart="128.00" departLane="1152958775#1_0" departPos="0.20" departSpeed="0.00" departDelay="5.00" arrival="135.00" arrivalLane="24400261_0" arrivalPos="39.37" arrivalSpeed="11.64" duration="7.00" routeLength="39.62" waitingTime="0.00" waitingCount="0" stopTime="0.00" timeLoss="3.73" rerouteNo="0" devices="tripinfo_123" vType="DEFAULT_VEHTYPE" speedFactor="0.99" vaporized=""/>
    <tripinfo id="101" depart="111.00" departLane="97251479#0_0" departPos="5.10" departSpeed="0.00" departDelay="10.00" arrival="136.00" arrivalLane="-97251479#3_0" arrivalPos="10.55" arrivalSpeed="11.17" duration="25.00" routeLength="246.41" waitingTime="0.00" waitingCount="0" stopTime="0.00" timeLoss="8.34" rerouteNo="0" devices="tripinfo_101" vType="DEFAULT_VEHTYPE" speedFactor="1.17" vaporized=""/>
    <tripinfo id="118" depart="121.00" departLane="97251479#1_0" departPos="2.37" departSpeed="0.00" departDelay="3.00" arrival="136.00" arrivalLane="1152958775#0_0" arrivalPos="5.42" arrivalSpeed="14.16" duration="15.00" routeLength="122.98" waitingTime="0.00" waitingCount="0" stopTime="0.00" timeLoss="5.27" rerouteNo="0" devices="tripinfo_118" vType="DEFAULT_VEHTYPE" speedFactor="1.08" vaporized=""/>
    <tripinfo id="98" depart="103.00" departLane="24436844#5_0" departPos="1.34" departSpeed="0.00" departDelay="5.00" arrival="137.00" arrivalLane="-97251479#0_0" arrivalPos="72.02" arrivalSpeed="6.71" duration="34.00" routeLength="213.83" waitingTime="9.00" waitingCount="1" stopTime="0.00" timeLoss="14.43" rerouteNo="0" devices="tripinfo_98" vType="DEFAULT_VEHTYPE" speedFactor="0.85" vaporized=""/>
    <tripinfo id="102" depart="106.00" departLane="24436844#3_0" departPos="0.27" departSpeed="0.00" departDelay="4.00" arrival="142.00" arrivalLane="1152958775#0_0" arrivalPos="5.42" arrivalSpeed="11.27" duration="36.00" routeLength="77.44" waitingTime="8.00" waitingCount="2" stopTime="0.00" timeLoss="27.43" rerouteNo="0" devices="tripinfo_102" vType="DEFAULT_VEHTYPE" speedFactor="1.02" vaporized=""/>
    <tripinfo id="120" depart="120.00" departLane="24436844#2_0" departPos="5.10" departSpeed="0.00" departDelay="0.00" arrival="144.00" arrivalLane="24436844#4_0" arrivalPos="36.46" arrivalSpeed="8.12" duration="24.00" routeLength="72.88" waitingTime="3.00" waitingCount="1" stopTime="0.00" timeLoss="15.97" rerouteNo="0" devices="tripinfo_120" vType="DEFAULT_VEHTYPE" speedFactor="1.12" vaporized=""/>
    <tripinfo id="116" depart="144.00" departLane="24436844#5_0" departPos="1.34" departSpeed="0.00" departDelay="28.00" arrival="145.00" arrivalLane="24436844#5_0" arrivalPos="1.34" arrivalSpeed="2.51" duration="1.00" routeLength="0.00" waitingTime="0.00" waitingCount="0" stopTime="0.00" timeLoss="0.69" rerouteNo="0" devices="tripinfo_116" vType="DEFAULT_VEHTYPE" speedFactor="0.97" vaporized=""/>
    <tripinfo id="137" depart="137.00" departLane="-97251479#3_0" departPos="5.10" departSpeed="0.00" departDelay="0.00" arrival="145.00" arrivalLane="-97251479#2_0" arrivalPos="45.31" arrivalSpeed="14.11" duration="8.00" routeLength="55.85" waitingTime="0.00" waitingCount="0" stopTime="0.00" timeLoss="3.51" rerouteNo="0" devices="tripinfo_137" vType="DEFAULT_VEHTYPE" speedFactor="1.06" vaporized=""/>
    <tripinfo id="100" depart="105.00" departLane="97251479#3_0" departPos="5.10" departSpeed="0.00" departDelay="5.00" arrival="150.00" arrivalLane="97251479#2_0" arrivalPos="45.31" arrivalSpeed="11.40" duration="45.00" routeLength="386.26" waitingTime="0.00" waitingCount="0" stopTime="0.00" timeLoss="8.21" rerouteNo="0" devices="tripinfo_100" vType="DEFAULT_VEHTYPE" speedFactor="0.85" vaporized=""/>
    <tripinfo id="103" depart="103.00" departLane="24436844#2_0" departPos="5.10" departSpeed="0.00" departDelay="0.00" arrival="153.00" arrivalLane="-97251479#1_0" arrivalPos="2.37" arrivalSpeed="14.64" duration="50.00" routeLength="211.73" waitingTime="6.00" waitingCount="2" stopTime="0.00" timeLoss="31.15" rerouteNo="0" devices="tripinfo_103" vType="DEFAULT_VEHTYPE" speedFactor="1.10" vaporized=""/>
    <tripinfo id="115" depart="115.00" departLane="-97251479#2_0" departPos="5.10" departSpeed="0.00" departDelay="0.00" arrival="156.00" arrivalLane="-97251479#3_0" arrivalPos="10.55" arrivalSpeed="10.25" duration="41.00" routeLength="386.20" waitingTime="0.00" waitingCount="0" stopTime="0.00" timeLoss="11.26" rerouteNo="0" devices="tripinfo_115" vType="DEFAULT_VEHTYPE" speedFactor="1.02" vaporized=""/>
    <tripinfo id="135" depart="138.00" departLane="97251479#0_0" departPos="5.10" departSpeed="0.00" departDelay="3.00" arrival="160.00" arrivalLane="1152958775#1_0" arrivalPos="0.20" arrivalSpeed="13.03" duration="22.00" routeLength="206.85" waitingTime="0.00" waitingCount="0" stopTime="0.00" timeLoss="5.12" rerouteNo="0" devices="tripinfo_135" vType="DEFAULT_VEHTYPE" speedFactor="0.97" vaporized=""/>
    <tripinfo id="128" depart="128.00" departLane="-97251479#2_0" departPos="5.10" departSpeed="0.00" departDelay="0.00" arrival="166.00" arrivalLane="1152958775#0_0" arrivalPos="5.42" arrivalSpeed="11.41" duration="38.00" routeLength="341.33" waitingTime="0.00" waitingCount="0" stopTime="0.00" timeLoss="8.76" rerouteNo="0" devices="tripinfo_128" vType="DEFAULT_VEHTYPE" speedFactor="0.91" vaporized=""/>
    <tripinfo id="131" depart="131.00" departLane="24436844#1_0" departPos="3.27" departSpeed="0.00" departDelay="0.00" arrival="166.00" arrivalLane="-97251479#2_0" arrivalPos="45.31" arrivalSpeed="14.36" duration="35.00" routeLength="218.11" waitingTime="2.00" waitingCount="1" stopTime="0.00" timeLoss="13.56" rerouteNo="0" devices="tripinfo_131" vType="DEFAULT_VEHTYPE" speedFactor="1.04" vaporized=""/>
    <tripinfo id="124" depart="124.00" departLane="24443806#1_0" departPos="5.10" departSpeed="0.00" departDelay="0.00" arrival="169.00" arrivalLane="1152958775#1_0" arrivalPos="0.20" arrivalSpeed="12.27" duration="45.00" routeLength="131.32" waitingTime="26.00" waitingCount="1" stopTime="0.00" timeLoss="33.60" rerouteNo="0" devices="tripinfo_124" vType="DEFAULT_VEHTYPE" speedFactor="0.94" vaporized=""/>
    <tripinfo id="152" depart="162.00" departLane="-97251479#3_0" departPos="5.10" departSpeed="0.00" departDelay="10.00" arrival="169.00" arrivalLane="-97251479#2_0" arrivalPos="45.31" arrivalSpeed="12.89" duration="7.00" routeLength="55.85" waitingTime="0.00" waitingCount="0" stopTime="0.00" timeLoss="2.97" rerouteNo="0" devices="tripinfo_152" vType="DEFAULT_VEHTYPE" speedFactor="1.02" vaporized=""/>
    <tripinfo id="97" depart="98.00" departLane="24436844#2_0" departPos="5.10" departSpeed="0.00" departDelay="1.00" arrival="170.00" arrivalLane="97251479#1_0" arrivalPos="2.37" arrivalSpeed="11.15" duration="72.00" routeLength="381.41" waitingTime="10.00" waitingCount="2" stopTime="0.00" timeLoss="33.19" rerouteNo="0" devices="tripinfo_97" vType="DEFAULT_VEHTYPE" speedFactor="0.88" vaporized=""/>
    <tripinfo id="160" depart="161.00" departLane="97251479#1_0" departPos="2.37" departSpeed="0.00" departDelay="1.00" arrival="170.00" arrivalLane="97251479#3_0" arrivalPos="10.25" arrivalSpeed="9.13" duration="9.00" routeLength="66.83" waitingTime="0.00" waitingCount="0" stopTime="0.00" timeLoss="4.19" rerouteNo="0" devices="tripinfo_160" vType="DEFAULT_VEHTYPE" speedFactor="1.01" vaporized=""/>
    <tripinfo id="167" depart="170.00" departLane="97251479#1_0" departPos="2.37" departSpeed="0.00" departDelay="3.00" arrival="171.00" arrivalLane="97251479#1_0" arrivalPos="2.37" arrivalSpeed="2.16" duration="1.00" routeLength="0.00" waitingTime="0.00" waitingCount="0" stopTime="0.00" timeLoss="0.86" rerouteNo="0" devices="tripinfo_167" vType="DEFAULT_VEHTYPE" speedFactor="1.09" vaporized=""/>
    <tripinfo id="149" depart="150.00" departLane="-97251479#2_0" departPos="5.10" departSpeed="0.00" departDelay="1.00" arrival="174.00" arrivalLane="97251479#1_0" arrivalPos="2.37" arrivalSpeed="13.62" duration="24.00" routeLength="218.35" waitingTime="0.00" waitingCount="0" stopTime="0.00" timeLoss="7.47" rerouteNo="0" devices="tripinfo_149" vType="DEFAULT_VEHTYPE" speedFactor="1.00" vaporized=""/>